
     Program PHONON v.6.4.1 starts on  3May2020 at 19:58:56 

     This program is part of the open-source Quantum ESPRESSO suite
     for quantum simulation of materials; please cite
         "P. Giannozzi et al., J. Phys.:Condens. Matter 21 395502 (2009);
         "P. Giannozzi et al., J. Phys.:Condens. Matter 29 465901 (2017);
          URL http://www.quantum-espresso.org", 
     in publications or presentations arising from this work. More details at
     http://www.quantum-espresso.org/quote

     Parallel version (MPI & OpenMP), running on       8 processor cores
     Number of MPI processes:                 1
     Threads/MPI process:                     8

     MPI processes distributed on     1 nodes

     Reading data from directory:
     .\CO2.save\

     IMPORTANT: XC functional enforced from input :
     Exchange-correlation      = PBE ( 1  4  3  4 0 0)
     Any further DFT definition will be discarded
     Please, verify this is what you really want

               file C.pbe-n-kjpaw_psl.1.0.0.UPF.txt: wavefunction(s)  2S 2P renormalized
               file O.pbe-n-kjpaw_psl.1.0.0.UPF.txt: wavefunction(s)  2S 2P renormalized

     G-vector sticks info
     --------------------
     sticks:   dense  smooth     PW     G-vecs:    dense   smooth      PW
     Sum        4997    4997   1245               264947   264947   33131


     Check: negative core charge=   -0.000002

     negative rho (up, down):  1.004E-03 0.000E+00

     Calculation of q =    0.0000000   0.0000000   0.0000000

     #Normal modes for CO2                                                      

     bravais-lattice index     =            1
     lattice parameter (alat)  =      14.0000  a.u.
     unit-cell volume          =    2744.0000 (a.u.)^3
     number of atoms/cell      =            3
     number of atomic types    =            2
     kinetic-energy cut-off    =      80.0000  Ry
     charge density cut-off    =     320.0000  Ry
     convergence threshold     =      1.0E-14
     beta                      =       0.7000
     number of iterations used =            4
     Exchange-correlation      = PBE ( 1  4  3  4 0 0)


     celldm(1)=   14.00000  celldm(2)=    0.00000  celldm(3)=    0.00000
     celldm(4)=    0.00000  celldm(5)=    0.00000  celldm(6)=    0.00000

     crystal axes: (cart. coord. in units of alat)
               a(1) = (  1.0000  0.0000  0.0000 )  
               a(2) = (  0.0000  1.0000  0.0000 )  
               a(3) = (  0.0000  0.0000  1.0000 )  

     reciprocal axes: (cart. coord. in units 2 pi/alat)
               b(1) = (  1.0000  0.0000  0.0000 )  
               b(2) = (  0.0000  1.0000  0.0000 )  
               b(3) = (  0.0000  0.0000  1.0000 )  


     Atoms inside the unit cell: 

     Cartesian axes

     site n.  atom      mass           positions (alat units)
        1     C   12.0100   tau(    1) = (    0.40495    0.40495    0.47845  )
        2     O   15.9990   tau(    2) = (    0.51771    0.51771    0.47833  )
        3     O   15.9990   tau(    3) = (    0.29217    0.29217    0.47833  )

     Computing dynamical matrix for 
                    q = (   0.0000000   0.0000000   0.0000000 )

      3 Sym.Ops. (with q -> -q+G )


     G cutoff = 1588.7162  ( 264947 G-vectors)     FFT grid: ( 80, 80, 80)
     number of k points=     1
                       cart. coord. in units 2pi/alat
        k(    1) = (   0.0000000   0.0000000   0.0000000), wk =   2.0000000

     PseudoPot. # 1 for C  read from file:
     .\C.pbe-n-kjpaw_psl.1.0.0.UPF.txt
     MD5 check sum: 8b6c203043cd0e274d092b473ec942a3
     Pseudo is Projector augmented-wave + core cor, Zval =  4.0
     Generated using "atomic" code by A. Dal Corso v.6.3
     Shape of augmentation charge: PSQ
     Using radial grid of 1073 points,  4 beta functions with: 
                l(1) =   0
                l(2) =   0
                l(3) =   1
                l(4) =   1
     Q(r) pseudized with 0 coefficients 


     PseudoPot. # 2 for O  read from file:
     .\O.pbe-n-kjpaw_psl.1.0.0.UPF.txt
     MD5 check sum: 39857a071589e2d71d8d6066351ccb62
     Pseudo is Projector augmented-wave + core cor, Zval =  6.0
     Generated using "atomic" code by A. Dal Corso v.6.3
     Shape of augmentation charge: PSQ
     Using radial grid of 1095 points,  4 beta functions with: 
                l(1) =   0
                l(2) =   0
                l(3) =   1
                l(4) =   1
     Q(r) pseudized with 0 coefficients 


     Mode symmetry, C_s (m)     point group:

     k=gamma and q=gamma tricks are used


     Electric field:
     Dielectric constant and polarizability
     Born effective charges as d Force / d E


     Atomic displacements:
     There are   9 irreducible representations

     Representation     1      1 modes - Calculated using asr

     Representation     2      1 modes - Calculated using asr

     Representation     3      1 modes - Calculated using asr

     Representation     4      1 modes -A  To be done

     Representation     5      1 modes -A  To be done

     Representation     6      1 modes -A  To be done

     Representation     7      1 modes -A  To be done

     Representation     8      1 modes -A  To be done

     Representation     9      1 modes -A  To be done



     Alpha used in Ewald sum =   2.8000

     negative rho (up, down):  1.004E-03 0.000E+00
     PHONON       :   2m30.61s CPU   1m45.91s WALL


     Electric Fields Calculation

      iter #   1 total cpu time :   130.8 secs   av.it.:  10.7
      thresh= 1.000E-02 alpha_mix =  0.700 |ddv_scf|^2 =  3.428E-08

      iter #   2 total cpu time :   146.4 secs   av.it.:  18.7
      thresh= 1.851E-05 alpha_mix =  0.700 |ddv_scf|^2 =  8.700E-08

      iter #   3 total cpu time :   163.3 secs   av.it.:  17.3
      thresh= 2.950E-05 alpha_mix =  0.700 |ddv_scf|^2 =  2.838E-09

      iter #   4 total cpu time :   179.0 secs   av.it.:  17.7
      thresh= 5.328E-06 alpha_mix =  0.700 |ddv_scf|^2 =  9.332E-11

      iter #   5 total cpu time :   195.0 secs   av.it.:  18.3
      thresh= 9.660E-07 alpha_mix =  0.700 |ddv_scf|^2 =  3.666E-12

      iter #   6 total cpu time :   210.6 secs   av.it.:  18.3
      thresh= 1.915E-07 alpha_mix =  0.700 |ddv_scf|^2 =  3.824E-13

      iter #   7 total cpu time :   226.7 secs   av.it.:  18.3
      thresh= 6.184E-08 alpha_mix =  0.700 |ddv_scf|^2 =  2.322E-14

      iter #   8 total cpu time :   245.0 secs   av.it.:  18.3
      thresh= 1.524E-08 alpha_mix =  0.700 |ddv_scf|^2 =  7.536E-16

     End of electric fields calculation

          Dielectric constant in cartesian axis 

          (       1.095449592       0.033532128       0.000024588 )
          (       0.033532128       1.095449592       0.000024588 )
          (       0.000032387       0.000032387       1.062553784 )

     Polarizability (a.u.)^3                    Polarizability (A^3)
     20.20      7.32      0.01             2.9933        1.0850        0.0010
      7.32     20.20      0.01             1.0850        2.9933        0.0010
      0.01      0.01     13.38             0.0008        0.0008        1.9828

          Effective charges (d Force / dE) in cartesian axis

           atom      1   C  
      Ex  (        1.37416        0.90941        0.00008 )
      Ey  (        0.90941        1.37416        0.00008 )
      Ez  (       -0.00071       -0.00071        0.46342 )
           atom      2   O  
      Ex  (       -0.62316       -0.43927        0.00184 )
      Ey  (       -0.43927       -0.62316        0.00184 )
      Ez  (       -0.00111       -0.00111       -0.18409 )
           atom      3   O  
      Ex  (       -0.65834       -0.44790       -0.00279 )
      Ey  (       -0.44790       -0.65834       -0.00279 )
      Ez  (       -0.00468       -0.00468       -0.22064 )


     Representation #  4 mode #   4

     Self-consistent Calculation

      iter #   1 total cpu time :   261.9 secs   av.it.:  13.0
      thresh= 1.000E-02 alpha_mix =  0.700 |ddv_scf|^2 =  2.155E-07

      iter #   2 total cpu time :   267.2 secs   av.it.:  19.0
      thresh= 4.643E-05 alpha_mix =  0.700 |ddv_scf|^2 =  1.576E-07

      iter #   3 total cpu time :   272.9 secs   av.it.:  18.0
      thresh= 3.969E-05 alpha_mix =  0.700 |ddv_scf|^2 =  5.836E-08

      iter #   4 total cpu time :   278.1 secs   av.it.:  17.0
      thresh= 2.416E-05 alpha_mix =  0.700 |ddv_scf|^2 =  5.105E-09

      iter #   5 total cpu time :   283.4 secs   av.it.:  18.0
      thresh= 7.145E-06 alpha_mix =  0.700 |ddv_scf|^2 =  1.445E-09

      iter #   6 total cpu time :   288.7 secs   av.it.:  18.0
      thresh= 3.802E-06 alpha_mix =  0.700 |ddv_scf|^2 =  1.075E-11

      iter #   7 total cpu time :   294.3 secs   av.it.:  18.0
      thresh= 3.278E-07 alpha_mix =  0.700 |ddv_scf|^2 =  1.292E-13

      iter #   8 total cpu time :   299.3 secs   av.it.:  17.0
      thresh= 3.594E-08 alpha_mix =  0.700 |ddv_scf|^2 =  4.568E-15

     End of self-consistent calculation

     Convergence has been achieved 


     Representation #  5 mode #   5

     Self-consistent Calculation

      iter #   1 total cpu time :   305.0 secs   av.it.:  13.0
      thresh= 1.000E-02 alpha_mix =  0.700 |ddv_scf|^2 =  2.156E-07

      iter #   2 total cpu time :   310.5 secs   av.it.:  19.0
      thresh= 4.643E-05 alpha_mix =  0.700 |ddv_scf|^2 =  1.575E-07

      iter #   3 total cpu time :   316.2 secs   av.it.:  18.0
      thresh= 3.969E-05 alpha_mix =  0.700 |ddv_scf|^2 =  5.836E-08

      iter #   4 total cpu time :   321.8 secs   av.it.:  17.0
      thresh= 2.416E-05 alpha_mix =  0.700 |ddv_scf|^2 =  5.109E-09

      iter #   5 total cpu time :   327.4 secs   av.it.:  18.0
      thresh= 7.148E-06 alpha_mix =  0.700 |ddv_scf|^2 =  1.441E-09

      iter #   6 total cpu time :   332.8 secs   av.it.:  18.0
      thresh= 3.797E-06 alpha_mix =  0.700 |ddv_scf|^2 =  1.069E-11

      iter #   7 total cpu time :   338.2 secs   av.it.:  18.0
      thresh= 3.269E-07 alpha_mix =  0.700 |ddv_scf|^2 =  1.295E-13

      iter #   8 total cpu time :   343.8 secs   av.it.:  17.0
      thresh= 3.598E-08 alpha_mix =  0.700 |ddv_scf|^2 =  4.534E-15

     End of self-consistent calculation

     Convergence has been achieved 


     Representation #  6 mode #   6

     Self-consistent Calculation

      iter #   1 total cpu time :   349.5 secs   av.it.:  11.0
      thresh= 1.000E-02 alpha_mix =  0.700 |ddv_scf|^2 =  1.523E-07

      iter #   2 total cpu time :   354.6 secs   av.it.:  17.0
      thresh= 3.903E-05 alpha_mix =  0.700 |ddv_scf|^2 =  1.300E-08

      iter #   3 total cpu time :   359.9 secs   av.it.:  17.0
      thresh= 1.140E-05 alpha_mix =  0.700 |ddv_scf|^2 =  9.396E-10

      iter #   4 total cpu time :   364.4 secs   av.it.:  16.0
      thresh= 3.065E-06 alpha_mix =  0.700 |ddv_scf|^2 =  2.958E-11

      iter #   5 total cpu time :   368.6 secs   av.it.:  19.0
      thresh= 5.439E-07 alpha_mix =  0.700 |ddv_scf|^2 =  6.602E-11

      iter #   6 total cpu time :   372.6 secs   av.it.:  17.0
      thresh= 8.125E-07 alpha_mix =  0.700 |ddv_scf|^2 =  4.209E-13

      iter #   7 total cpu time :   376.6 secs   av.it.:  18.0
      thresh= 6.488E-08 alpha_mix =  0.700 |ddv_scf|^2 =  7.599E-14

      iter #   8 total cpu time :   380.6 secs   av.it.:  17.0
      thresh= 2.757E-08 alpha_mix =  0.700 |ddv_scf|^2 =  9.650E-16

     End of self-consistent calculation

     Convergence has been achieved 


     Representation #  7 mode #   7

     Self-consistent Calculation

      iter #   1 total cpu time :   384.6 secs   av.it.:  13.0
      thresh= 1.000E-02 alpha_mix =  0.700 |ddv_scf|^2 =  2.227E-07

      iter #   2 total cpu time :   388.7 secs   av.it.:  19.0
      thresh= 4.719E-05 alpha_mix =  0.700 |ddv_scf|^2 =  1.612E-07

      iter #   3 total cpu time :   392.8 secs   av.it.:  18.0
      thresh= 4.015E-05 alpha_mix =  0.700 |ddv_scf|^2 =  6.606E-08

      iter #   4 total cpu time :   396.7 secs   av.it.:  17.0
      thresh= 2.570E-05 alpha_mix =  0.700 |ddv_scf|^2 =  4.580E-09

      iter #   5 total cpu time :   400.8 secs   av.it.:  18.0
      thresh= 6.767E-06 alpha_mix =  0.700 |ddv_scf|^2 =  1.393E-09

      iter #   6 total cpu time :   404.8 secs   av.it.:  17.0
      thresh= 3.733E-06 alpha_mix =  0.700 |ddv_scf|^2 =  1.857E-11

      iter #   7 total cpu time :   408.8 secs   av.it.:  18.0
      thresh= 4.310E-07 alpha_mix =  0.700 |ddv_scf|^2 =  2.661E-13

      iter #   8 total cpu time :   412.7 secs   av.it.:  17.0
      thresh= 5.159E-08 alpha_mix =  0.700 |ddv_scf|^2 =  1.985E-14

      iter #   9 total cpu time :   416.6 secs   av.it.:  17.0
      thresh= 1.409E-08 alpha_mix =  0.700 |ddv_scf|^2 =  6.250E-16

     End of self-consistent calculation

     Convergence has been achieved 


     Representation #  8 mode #   8

     Self-consistent Calculation

      iter #   1 total cpu time :   420.7 secs   av.it.:  13.0
      thresh= 1.000E-02 alpha_mix =  0.700 |ddv_scf|^2 =  2.208E-07

      iter #   2 total cpu time :   424.7 secs   av.it.:  19.0
      thresh= 4.699E-05 alpha_mix =  0.700 |ddv_scf|^2 =  1.570E-07

      iter #   3 total cpu time :   428.8 secs   av.it.:  18.0
      thresh= 3.962E-05 alpha_mix =  0.700 |ddv_scf|^2 =  6.516E-08

      iter #   4 total cpu time :   432.7 secs   av.it.:  17.0
      thresh= 2.553E-05 alpha_mix =  0.700 |ddv_scf|^2 =  4.522E-09

      iter #   5 total cpu time :   436.8 secs   av.it.:  18.0
      thresh= 6.725E-06 alpha_mix =  0.700 |ddv_scf|^2 =  1.440E-09

      iter #   6 total cpu time :   440.8 secs   av.it.:  17.0
      thresh= 3.795E-06 alpha_mix =  0.700 |ddv_scf|^2 =  1.924E-11

      iter #   7 total cpu time :   444.8 secs   av.it.:  18.0
      thresh= 4.386E-07 alpha_mix =  0.700 |ddv_scf|^2 =  2.878E-13

      iter #   8 total cpu time :   448.7 secs   av.it.:  17.0
      thresh= 5.365E-08 alpha_mix =  0.700 |ddv_scf|^2 =  2.247E-14

      iter #   9 total cpu time :   452.6 secs   av.it.:  17.0
      thresh= 1.499E-08 alpha_mix =  0.700 |ddv_scf|^2 =  6.561E-16

     End of self-consistent calculation

     Convergence has been achieved 


     Representation #  9 mode #   9

     Self-consistent Calculation

      iter #   1 total cpu time :   456.5 secs   av.it.:  11.0
      thresh= 1.000E-02 alpha_mix =  0.700 |ddv_scf|^2 =  1.585E-07

      iter #   2 total cpu time :   460.5 secs   av.it.:  17.0
      thresh= 3.981E-05 alpha_mix =  0.700 |ddv_scf|^2 =  1.747E-08

      iter #   3 total cpu time :   464.4 secs   av.it.:  16.0
      thresh= 1.322E-05 alpha_mix =  0.700 |ddv_scf|^2 =  1.422E-09

      iter #   4 total cpu time :   468.2 secs   av.it.:  16.0
      thresh= 3.770E-06 alpha_mix =  0.700 |ddv_scf|^2 =  4.617E-12

      iter #   5 total cpu time :   472.4 secs   av.it.:  19.0
      thresh= 2.149E-07 alpha_mix =  0.700 |ddv_scf|^2 =  5.176E-12

      iter #   6 total cpu time :   476.4 secs   av.it.:  18.0
      thresh= 2.275E-07 alpha_mix =  0.700 |ddv_scf|^2 =  2.880E-13

      iter #   7 total cpu time :   480.4 secs   av.it.:  18.0
      thresh= 5.367E-08 alpha_mix =  0.700 |ddv_scf|^2 =  3.333E-13

      iter #   8 total cpu time :   484.3 secs   av.it.:  17.0
      thresh= 5.773E-08 alpha_mix =  0.700 |ddv_scf|^2 =  5.590E-15

     End of self-consistent calculation

     Convergence has been achieved 

     Number of q in the star =    1
     List of q in the star:
          1   0.000000000   0.000000000   0.000000000

          Dielectric constant in cartesian axis 

          (       1.095449592       0.033532128       0.000024588 )
          (       0.033532128       1.095449592       0.000024588 )
          (       0.000032387       0.000032387       1.062553784 )

     Polarizability (a.u.)^3                    Polarizability (A^3)
     20.20      7.32      0.01             2.9933        1.0850        0.0010
      7.32     20.20      0.01             1.0850        2.9933        0.0010
      0.01      0.01     13.38             0.0008        0.0008        1.9828

          Effective charges (d Force / dE) in cartesian axis

           atom      1   C  
      Ex  (        1.37416        0.90941        0.00008 )
      Ey  (        0.90941        1.37416        0.00008 )
      Ez  (       -0.00071       -0.00071        0.46342 )
           atom      2   O  
      Ex  (       -0.62316       -0.43927        0.00184 )
      Ey  (       -0.43927       -0.62316        0.00184 )
      Ez  (       -0.00111       -0.00111       -0.18409 )
           atom      3   O  
      Ex  (       -0.65834       -0.44790       -0.00279 )
      Ey  (       -0.44790       -0.65834       -0.00279 )
      Ez  (       -0.00468       -0.00468       -0.22064 )

     Diagonalizing the dynamical matrix

     q = (    0.000000000   0.000000000   0.000000000 ) 

 **************************************************************************
     freq (    1) =      -7.473517 [THz] =    -249.289696 [cm-1]
     freq (    2) =      -6.391832 [THz] =    -213.208550 [cm-1]
     freq (    3) =      -3.841205 [THz] =    -128.128805 [cm-1]
     freq (    4) =       9.582097 [THz] =     319.624367 [cm-1]
     freq (    5) =      13.155466 [THz] =     438.819124 [cm-1]
     freq (    6) =      26.635704 [THz] =     888.471466 [cm-1]
     freq (    7) =      27.494959 [THz] =     917.133121 [cm-1]
     freq (    8) =      41.097676 [THz] =    1370.870913 [cm-1]
     freq (    9) =      70.221554 [THz] =    2342.338923 [cm-1]
 **************************************************************************

     Mode symmetry, C_s (m)     point group:

     freq (  1 -  1) =       -249.3  [cm-1]   -->   ?
     freq (  2 -  2) =       -213.2  [cm-1]   -->   ?
     freq (  3 -  3) =       -128.1  [cm-1]   -->   ?
     freq (  4 -  4) =        319.6  [cm-1]   -->   ?
     freq (  5 -  5) =        438.8  [cm-1]   -->   ?
     freq (  6 -  6) =        888.5  [cm-1]   -->   ?
     freq (  7 -  7) =        917.1  [cm-1]   -->   ?
     freq (  8 -  8) =       1370.9  [cm-1]   -->   ?
     freq (  9 -  9) =       2342.3  [cm-1]   -->   ?

     PHONON       :  21m44.56s CPU   8m 4.86s WALL

     INITIALIZATION: 
     phq_setup    :      2.20s CPU      1.22s WALL (       1 calls)
     phq_init     :    140.12s CPU     99.41s WALL (       1 calls)

     phq_init     :    140.12s CPU     99.41s WALL (       1 calls)
     set_drhoc    :     60.11s CPU     60.01s WALL (       3 calls)
     init_vloc    :      0.36s CPU      0.11s WALL (       1 calls)
     init_us_1    :      2.12s CPU      1.44s WALL (       1 calls)
     newd         :      1.12s CPU      0.36s WALL (       1 calls)
     dvanqq       :     31.34s CPU      9.57s WALL (       1 calls)
     drho         :     23.59s CPU      6.68s WALL (       1 calls)
     cmpt_qdipol  :      0.00s CPU      0.00s WALL (       1 calls)

     DIELECTRIC CONSTANT AND EFFECTIVE CHARGES:
     solve_e      :    401.73s CPU    139.12s WALL (       1 calls)
     dielec       :      0.09s CPU      0.04s WALL (       1 calls)
     zstar_eu     :     36.88s CPU     11.91s WALL (       1 calls)

     DYNAMICAL MATRIX:
     dynmat0      :     44.23s CPU     42.13s WALL (       1 calls)
     phqscf       :    714.98s CPU    227.78s WALL (       1 calls)
     dynmatrix    :      0.00s CPU      0.01s WALL (       1 calls)

     phqscf       :    714.98s CPU    227.78s WALL (       1 calls)
     solve_linter :    711.03s CPU    226.64s WALL (       6 calls)
     drhodv       :      3.62s CPU      0.94s WALL (       6 calls)

     dynmat0      :     44.23s CPU     42.13s WALL (       1 calls)
     dynmat_us    :      1.86s CPU      1.17s WALL (       1 calls)
     d2ionq       :      1.19s CPU      0.45s WALL (       1 calls)
     dynmatcc     :     41.19s CPU     40.50s WALL (       1 calls)

     dynmat_us    :      1.86s CPU      1.17s WALL (       1 calls)
     addusdynmat  :      0.00s CPU      0.00s WALL (       1 calls)

     phqscf       :    714.98s CPU    227.78s WALL (       1 calls)
     solve_linter :    711.03s CPU    226.64s WALL (       6 calls)

     solve_linter :    711.03s CPU    226.64s WALL (       6 calls)
     dvqpsi_us    :      6.56s CPU      1.83s WALL (      15 calls)
     ortho        :      2.31s CPU      0.63s WALL (      77 calls)
     cgsolve      :    602.16s CPU    152.07s WALL (      77 calls)
     incdrhoscf   :     28.38s CPU      8.59s WALL (      77 calls)
     addusddens   :    114.16s CPU     30.98s WALL (      59 calls)
     vpsifft      :     11.19s CPU      3.16s WALL (      44 calls)
     dv_of_drho   :     44.66s CPU     14.68s WALL (      77 calls)
     mix_pot      :     15.56s CPU     12.32s WALL (      58 calls)
     newdq        :    133.38s CPU     35.76s WALL (      58 calls)
     adddvscf     :      1.70s CPU      0.49s WALL (      65 calls)
     drhodvus     :      0.58s CPU      0.23s WALL (       6 calls)

     dvqpsi_us    :      6.56s CPU      1.83s WALL (      15 calls)
     dvqpsi_us_on :      0.62s CPU      0.13s WALL (      15 calls)

     cgsolve      :    602.16s CPU    152.07s WALL (      77 calls)
     ch_psi       :    570.06s CPU    143.21s WALL (    1696 calls)

     ch_psi       :    570.06s CPU    143.21s WALL (    1696 calls)
     h_psi        :    467.70s CPU    113.30s WALL (    1696 calls)
     last         :     66.34s CPU     18.75s WALL (    1696 calls)

     h_psi        :    467.70s CPU    113.30s WALL (    1696 calls)
     add_vuspsi   :     16.06s CPU      4.61s WALL (    1696 calls)

     incdrhoscf   :     28.38s CPU      8.59s WALL (      77 calls)
     addusdbec    :      0.50s CPU      0.14s WALL (      86 calls)

     drhodvus     :      0.58s CPU      0.23s WALL (       6 calls)

      General routines
     calbec       :     23.11s CPU      6.45s WALL (    3811 calls)
     fft          :     18.00s CPU      4.80s WALL (    1434 calls)
     ffts         :      1.41s CPU      0.22s WALL (      78 calls)
     fftw         :    310.84s CPU     84.75s WALL (   24988 calls)
     davcio       :     11.66s CPU     11.21s WALL (     896 calls)
     write_rec    :      2.78s CPU      1.23s WALL (      64 calls)


     PHONON       :  21m44.56s CPU   8m 4.86s WALL


   This run was terminated on:  20: 7: 0   3May2020            

=------------------------------------------------------------------------------=
   JOB DONE.
=------------------------------------------------------------------------------=
