
     Program PWSCF v.6.4.1 starts on  3May2020 at 19:55:51 

     This program is part of the open-source Quantum ESPRESSO suite
     for quantum simulation of materials; please cite
         "P. Giannozzi et al., J. Phys.:Condens. Matter 21 395502 (2009);
         "P. Giannozzi et al., J. Phys.:Condens. Matter 29 465901 (2017);
          URL http://www.quantum-espresso.org", 
     in publications or presentations arising from this work. More details at
     http://www.quantum-espresso.org/quote

     Parallel version (MPI & OpenMP), running on       8 processor cores
     Number of MPI processes:                 1
     Threads/MPI process:                     8

     MPI processes distributed on     1 nodes
     Waiting for input...
     Reading input from standard input
Warning: card &IONS ignored
Warning: card / ignored

     Current dimensions of program PWSCF are:
     Max number of different atomic species (ntypx) = 10
     Max number of k-points (npk) =  40000
     Max angular momentum in pseudopotentials (lmaxx) =  3
               file C.pbe-n-kjpaw_psl.1.0.0.UPF.txt: wavefunction(s)  2S 2P renormalized
               file O.pbe-n-kjpaw_psl.1.0.0.UPF.txt: wavefunction(s)  2S 2P renormalized

     Subspace diagonalization in iterative solution of the eigenvalue problem:
     a serial algorithm will be used


     G-vector sticks info
     --------------------
     sticks:   dense  smooth     PW     G-vecs:    dense   smooth      PW
     Sum        4997    4997   1245               264947   264947   33131



     bravais-lattice index     =            1
     lattice parameter (alat)  =      14.0000  a.u.
     unit-cell volume          =    2744.0000 (a.u.)^3
     number of atoms/cell      =            3
     number of atomic types    =            2
     number of electrons       =        16.00
     number of Kohn-Sham states=            8
     kinetic-energy cutoff     =      80.0000  Ry
     charge density cutoff     =     320.0000  Ry
     convergence threshold     =      1.0E-08
     mixing beta               =       0.7000
     number of iterations used =            8  plain     mixing
     Exchange-correlation      = SLA PW PBX PBC ( 1  4  3  4 0 0)

     celldm(1)=  14.000000  celldm(2)=   0.000000  celldm(3)=   0.000000
     celldm(4)=   0.000000  celldm(5)=   0.000000  celldm(6)=   0.000000

     crystal axes: (cart. coord. in units of alat)
               a(1) = (   1.000000   0.000000   0.000000 )  
               a(2) = (   0.000000   1.000000   0.000000 )  
               a(3) = (   0.000000   0.000000   1.000000 )  

     reciprocal axes: (cart. coord. in units 2 pi/alat)
               b(1) = (  1.000000  0.000000  0.000000 )  
               b(2) = (  0.000000  1.000000  0.000000 )  
               b(3) = (  0.000000  0.000000  1.000000 )  


     PseudoPot. # 1 for C  read from file:
     .\C.pbe-n-kjpaw_psl.1.0.0.UPF.txt
     MD5 check sum: 5f16ad9a65e90284d1d834d4ab3b0f7d
     Pseudo is Projector augmented-wave + core cor, Zval =  4.0
     Generated using "atomic" code by A. Dal Corso v.6.3
     Shape of augmentation charge: PSQ
     Using radial grid of 1073 points,  4 beta functions with: 
                l(1) =   0
                l(2) =   0
                l(3) =   1
                l(4) =   1
     Q(r) pseudized with 0 coefficients 


     PseudoPot. # 2 for O  read from file:
     .\O.pbe-n-kjpaw_psl.1.0.0.UPF.txt
     MD5 check sum: e99d9cef9b487d1ca56f5b95ecd0fd7a
     Pseudo is Projector augmented-wave + core cor, Zval =  6.0
     Generated using "atomic" code by A. Dal Corso v.6.3
     Shape of augmentation charge: PSQ
     Using radial grid of 1095 points,  4 beta functions with: 
                l(1) =   0
                l(2) =   0
                l(3) =   1
                l(4) =   1
     Q(r) pseudized with 0 coefficients 


     atomic species   valence    mass     pseudopotential
        C              4.00    12.01000     C ( 1.00)
        O              6.00    15.99900     O ( 1.00)

      2 Sym. Ops. (no inversion) found



   Cartesian axes

     site n.     atom                  positions (alat units)
         1           C   tau(   1) = (   0.4049470   0.4049470   0.4784535  )
         2           O   tau(   2) = (   0.5177052   0.5177052   0.4783309  )
         3           O   tau(   3) = (   0.2921718   0.2921718   0.4783276  )

     number of k points=     1
                       cart. coord. in units 2pi/alat
        k(    1) = (   0.0000000   0.0000000   0.0000000), wk =   2.0000000

     Dense  grid:   264947 G-vectors     FFT dimensions: (  80,  80,  80)

     Estimated max dynamical RAM per process >     353.35 MB

     Check: negative core charge=   -0.000002

     Initial potential from superposition of free atoms

     starting charge   15.99996, renormalised to   16.00000

     negative rho (up, down):  4.626E-04 0.000E+00
     Starting wfcs are   12 randomized atomic wfcs
     Checking if some PAW data can be deallocated... 

     total cpu time spent up to now is        6.5 secs

     Self-consistent Calculation

     iteration #  1     ecut=    80.00 Ry     beta= 0.70
     Davidson diagonalization with overlap
     ethr =  1.00E-02,  avg # of iterations =  3.0

     negative rho (up, down):  8.027E-04 0.000E+00

     total cpu time spent up to now is        7.9 secs

     total energy              =    -101.54373368 Ry
     Harris-Foulkes estimate   =    -101.88619882 Ry
     estimated scf accuracy    <       0.47808773 Ry

     iteration #  2     ecut=    80.00 Ry     beta= 0.70
     Davidson diagonalization with overlap
     ethr =  2.99E-03,  avg # of iterations =  4.0

     negative rho (up, down):  7.566E-04 0.000E+00

     total cpu time spent up to now is        9.5 secs

     total energy              =    -101.63965351 Ry
     Harris-Foulkes estimate   =    -101.97496694 Ry
     estimated scf accuracy    <       0.74750224 Ry

     iteration #  3     ecut=    80.00 Ry     beta= 0.70
     Davidson diagonalization with overlap
     ethr =  2.99E-03,  avg # of iterations =  1.0

     negative rho (up, down):  7.890E-04 0.000E+00

     total cpu time spent up to now is       10.9 secs

     total energy              =    -101.48807060 Ry
     Harris-Foulkes estimate   =    -101.66151903 Ry
     estimated scf accuracy    <       0.25766271 Ry

     iteration #  4     ecut=    80.00 Ry     beta= 0.70
     Davidson diagonalization with overlap
     ethr =  1.61E-03,  avg # of iterations =  5.0

     negative rho (up, down):  8.653E-04 0.000E+00

     total cpu time spent up to now is       12.5 secs

     total energy              =    -101.81401110 Ry
     Harris-Foulkes estimate   =    -101.99756745 Ry
     estimated scf accuracy    <       0.81606804 Ry

     iteration #  5     ecut=    80.00 Ry     beta= 0.70
     Davidson diagonalization with overlap
     ethr =  1.61E-03,  avg # of iterations =  1.0

     negative rho (up, down):  9.209E-04 0.000E+00

     total cpu time spent up to now is       13.8 secs

     total energy              =    -101.66970736 Ry
     Harris-Foulkes estimate   =    -101.81802490 Ry
     estimated scf accuracy    <       0.54331191 Ry

     iteration #  6     ecut=    80.00 Ry     beta= 0.70
     Davidson diagonalization with overlap
     ethr =  1.61E-03,  avg # of iterations =  4.0

     negative rho (up, down):  9.275E-04 0.000E+00

     total cpu time spent up to now is       15.3 secs

     total energy              =    -101.76432783 Ry
     Harris-Foulkes estimate   =    -101.76416602 Ry
     estimated scf accuracy    <       0.01748790 Ry

     iteration #  7     ecut=    80.00 Ry     beta= 0.70
     Davidson diagonalization with overlap
     ethr =  1.09E-04,  avg # of iterations =  4.0

     negative rho (up, down):  9.272E-04 0.000E+00

     total cpu time spent up to now is       16.8 secs

     total energy              =    -101.77455459 Ry
     Harris-Foulkes estimate   =    -101.77454560 Ry
     estimated scf accuracy    <       0.00889629 Ry

     iteration #  8     ecut=    80.00 Ry     beta= 0.70
     Davidson diagonalization with overlap
     ethr =  5.56E-05,  avg # of iterations =  1.0

     negative rho (up, down):  9.219E-04 0.000E+00

     total cpu time spent up to now is       18.2 secs

     total energy              =    -101.77518811 Ry
     Harris-Foulkes estimate   =    -101.77458979 Ry
     estimated scf accuracy    <       0.00907159 Ry

     iteration #  9     ecut=    80.00 Ry     beta= 0.70
     Davidson diagonalization with overlap
     ethr =  5.56E-05,  avg # of iterations =  1.0

     negative rho (up, down):  9.205E-04 0.000E+00

     total cpu time spent up to now is       19.5 secs

     total energy              =    -101.77537459 Ry
     Harris-Foulkes estimate   =    -101.77522495 Ry
     estimated scf accuracy    <       0.01051659 Ry

     iteration # 10     ecut=    80.00 Ry     beta= 0.70
     Davidson diagonalization with overlap
     ethr =  5.56E-05,  avg # of iterations =  1.0

     negative rho (up, down):  9.093E-04 0.000E+00

     total cpu time spent up to now is       20.9 secs

     total energy              =    -101.77343185 Ry
     Harris-Foulkes estimate   =    -101.77539090 Ry
     estimated scf accuracy    <       0.01097995 Ry

     iteration # 11     ecut=    80.00 Ry     beta= 0.70
     Davidson diagonalization with overlap
     ethr =  5.56E-05,  avg # of iterations =  1.0

     negative rho (up, down):  1.070E-03 0.000E+00

     total cpu time spent up to now is       22.2 secs

     total energy              =    -101.77266123 Ry
     Harris-Foulkes estimate   =    -101.77356530 Ry
     estimated scf accuracy    <       0.00745536 Ry

     iteration # 12     ecut=    80.00 Ry     beta= 0.70
     Davidson diagonalization with overlap
     ethr =  4.66E-05,  avg # of iterations =  1.0

     negative rho (up, down):  1.189E-03 0.000E+00

     total cpu time spent up to now is       23.6 secs

     total energy              =    -101.77243352 Ry
     Harris-Foulkes estimate   =    -101.77275920 Ry
     estimated scf accuracy    <       0.00561993 Ry

     iteration # 13     ecut=    80.00 Ry     beta= 0.70
     Davidson diagonalization with overlap
     ethr =  3.51E-05,  avg # of iterations =  1.0

     negative rho (up, down):  1.240E-03 0.000E+00

     total cpu time spent up to now is       25.0 secs

     total energy              =    -101.77183094 Ry
     Harris-Foulkes estimate   =    -101.77252255 Ry
     estimated scf accuracy    <       0.00476452 Ry

     iteration # 14     ecut=    80.00 Ry     beta= 0.70
     Davidson diagonalization with overlap
     ethr =  2.98E-05,  avg # of iterations =  1.0

     negative rho (up, down):  1.294E-03 0.000E+00

     total cpu time spent up to now is       26.4 secs

     total energy              =    -101.77200829 Ry
     Harris-Foulkes estimate   =    -101.77201628 Ry
     estimated scf accuracy    <       0.00348203 Ry

     iteration # 15     ecut=    80.00 Ry     beta= 0.70
     Davidson diagonalization with overlap
     ethr =  2.18E-05,  avg # of iterations =  4.0

     negative rho (up, down):  1.233E-03 0.000E+00

     total cpu time spent up to now is       27.9 secs

     total energy              =    -101.77294182 Ry
     Harris-Foulkes estimate   =    -101.77340705 Ry
     estimated scf accuracy    <       0.00364336 Ry

     iteration # 16     ecut=    80.00 Ry     beta= 0.70
     Davidson diagonalization with overlap
     ethr =  2.18E-05,  avg # of iterations =  1.0

     negative rho (up, down):  9.972E-04 0.000E+00

     total cpu time spent up to now is       29.2 secs

     total energy              =    -101.77159623 Ry
     Harris-Foulkes estimate   =    -101.77300090 Ry
     estimated scf accuracy    <       0.00288150 Ry

     iteration # 17     ecut=    80.00 Ry     beta= 0.70
     Davidson diagonalization with overlap
     ethr =  1.80E-05,  avg # of iterations =  4.0

     negative rho (up, down):  1.024E-03 0.000E+00

     total cpu time spent up to now is       30.8 secs

     total energy              =    -101.77390351 Ry
     Harris-Foulkes estimate   =    -101.77352142 Ry
     estimated scf accuracy    <       0.00522628 Ry

     iteration # 18     ecut=    80.00 Ry     beta= 0.70
     Davidson diagonalization with overlap
     ethr =  1.80E-05,  avg # of iterations =  2.0

     negative rho (up, down):  1.009E-03 0.000E+00

     total cpu time spent up to now is       32.2 secs

     total energy              =    -101.77472212 Ry
     Harris-Foulkes estimate   =    -101.77405430 Ry
     estimated scf accuracy    <       0.00674660 Ry

     iteration # 19     ecut=    80.00 Ry     beta= 0.70
     Davidson diagonalization with overlap
     ethr =  1.80E-05,  avg # of iterations =  1.0

     negative rho (up, down):  1.004E-03 0.000E+00

     total cpu time spent up to now is       33.5 secs

     total energy              =    -101.77557733 Ry
     Harris-Foulkes estimate   =    -101.77482709 Ry
     estimated scf accuracy    <       0.00823711 Ry

     iteration # 20     ecut=    80.00 Ry     beta= 0.70
     Davidson diagonalization with overlap
     ethr =  1.80E-05,  avg # of iterations =  3.0

     negative rho (up, down):  1.004E-03 0.000E+00

     total cpu time spent up to now is       34.9 secs

     total energy              =    -101.77507232 Ry
     Harris-Foulkes estimate   =    -101.77590290 Ry
     estimated scf accuracy    <       0.01236419 Ry

     iteration # 21     ecut=    80.00 Ry     beta= 0.70
     Davidson diagonalization with overlap
     ethr =  1.80E-05,  avg # of iterations =  1.0

     negative rho (up, down):  1.005E-03 0.000E+00

     total cpu time spent up to now is       36.3 secs

     total energy              =    -101.77466247 Ry
     Harris-Foulkes estimate   =    -101.77511070 Ry
     estimated scf accuracy    <       0.01114980 Ry

     iteration # 22     ecut=    80.00 Ry     beta= 0.70
     Davidson diagonalization with overlap
     ethr =  1.80E-05,  avg # of iterations =  1.0

     negative rho (up, down):  1.006E-03 0.000E+00

     total cpu time spent up to now is       37.7 secs

     total energy              =    -101.77419747 Ry
     Harris-Foulkes estimate   =    -101.77467999 Ry
     estimated scf accuracy    <       0.01037238 Ry

     iteration # 23     ecut=    80.00 Ry     beta= 0.70
     Davidson diagonalization with overlap
     ethr =  1.80E-05,  avg # of iterations =  1.0

     negative rho (up, down):  1.030E-03 0.000E+00

     total cpu time spent up to now is       39.0 secs

     total energy              =    -101.76851295 Ry
     Harris-Foulkes estimate   =    -101.77421699 Ry
     estimated scf accuracy    <       0.00933157 Ry

     iteration # 24     ecut=    80.00 Ry     beta= 0.70
     Davidson diagonalization with overlap
     ethr =  1.80E-05,  avg # of iterations =  5.0

     negative rho (up, down):  1.017E-03 0.000E+00

     total cpu time spent up to now is       40.7 secs

     total energy              =    -101.77262143 Ry
     Harris-Foulkes estimate   =    -101.77386479 Ry
     estimated scf accuracy    <       0.00654972 Ry

     iteration # 25     ecut=    80.00 Ry     beta= 0.70
     Davidson diagonalization with overlap
     ethr =  1.80E-05,  avg # of iterations =  1.0

     negative rho (up, down):  1.011E-03 0.000E+00

     total cpu time spent up to now is       42.1 secs

     total energy              =    -101.77213962 Ry
     Harris-Foulkes estimate   =    -101.77264677 Ry
     estimated scf accuracy    <       0.00466705 Ry

     iteration # 26     ecut=    80.00 Ry     beta= 0.70
     Davidson diagonalization with overlap
     ethr =  1.80E-05,  avg # of iterations =  2.0

     negative rho (up, down):  1.011E-03 0.000E+00

     total cpu time spent up to now is       43.6 secs

     total energy              =    -101.77267295 Ry
     Harris-Foulkes estimate   =    -101.77234092 Ry
     estimated scf accuracy    <       0.00219200 Ry

     iteration # 27     ecut=    80.00 Ry     beta= 0.70
     Davidson diagonalization with overlap
     ethr =  1.37E-05,  avg # of iterations =  1.0

     negative rho (up, down):  1.006E-03 0.000E+00

     total cpu time spent up to now is       45.0 secs

     total energy              =    -101.77245533 Ry
     Harris-Foulkes estimate   =    -101.77270544 Ry
     estimated scf accuracy    <       0.00263228 Ry

     iteration # 28     ecut=    80.00 Ry     beta= 0.70
     Davidson diagonalization with overlap
     ethr =  1.37E-05,  avg # of iterations =  1.0

     negative rho (up, down):  1.003E-03 0.000E+00

     total cpu time spent up to now is       46.5 secs

     total energy              =    -101.77224947 Ry
     Harris-Foulkes estimate   =    -101.77251464 Ry
     estimated scf accuracy    <       0.00185355 Ry

     iteration # 29     ecut=    80.00 Ry     beta= 0.70
     Davidson diagonalization with overlap
     ethr =  1.16E-05,  avg # of iterations =  1.0

     negative rho (up, down):  1.002E-03 0.000E+00

     total cpu time spent up to now is       47.9 secs

     total energy              =    -101.77216772 Ry
     Harris-Foulkes estimate   =    -101.77229159 Ry
     estimated scf accuracy    <       0.00125529 Ry

     iteration # 30     ecut=    80.00 Ry     beta= 0.70
     Davidson diagonalization with overlap
     ethr =  7.85E-06,  avg # of iterations =  1.0

     negative rho (up, down):  1.001E-03 0.000E+00

     total cpu time spent up to now is       49.5 secs

     total energy              =    -101.77204375 Ry
     Harris-Foulkes estimate   =    -101.77220388 Ry
     estimated scf accuracy    <       0.00087366 Ry

     iteration # 31     ecut=    80.00 Ry     beta= 0.70
     Davidson diagonalization with overlap
     ethr =  5.46E-06,  avg # of iterations =  4.0

     negative rho (up, down):  1.001E-03 0.000E+00

     total cpu time spent up to now is       51.2 secs

     total energy              =    -101.77218760 Ry
     Harris-Foulkes estimate   =    -101.77220362 Ry
     estimated scf accuracy    <       0.00018121 Ry

     iteration # 32     ecut=    80.00 Ry     beta= 0.70
     Davidson diagonalization with overlap
     ethr =  1.13E-06,  avg # of iterations =  4.0

     negative rho (up, down):  9.982E-04 0.000E+00

     total cpu time spent up to now is       53.0 secs

     total energy              =    -101.77227011 Ry
     Harris-Foulkes estimate   =    -101.77226355 Ry
     estimated scf accuracy    <       0.00005156 Ry

     iteration # 33     ecut=    80.00 Ry     beta= 0.70
     Davidson diagonalization with overlap
     ethr =  3.22E-07,  avg # of iterations =  1.0

     negative rho (up, down):  1.000E-03 0.000E+00

     total cpu time spent up to now is       54.6 secs

     total energy              =    -101.77226409 Ry
     Harris-Foulkes estimate   =    -101.77227092 Ry
     estimated scf accuracy    <       0.00007709 Ry

     iteration # 34     ecut=    80.00 Ry     beta= 0.70
     Davidson diagonalization with overlap
     ethr =  3.22E-07,  avg # of iterations =  1.0

     negative rho (up, down):  1.003E-03 0.000E+00

     total cpu time spent up to now is       56.1 secs

     total energy              =    -101.77228740 Ry
     Harris-Foulkes estimate   =    -101.77226473 Ry
     estimated scf accuracy    <       0.00005776 Ry

     iteration # 35     ecut=    80.00 Ry     beta= 0.70
     Davidson diagonalization with overlap
     ethr =  3.22E-07,  avg # of iterations =  5.0

     negative rho (up, down):  1.005E-03 0.000E+00

     total cpu time spent up to now is       57.8 secs

     total energy              =    -101.77222389 Ry
     Harris-Foulkes estimate   =    -101.77239669 Ry
     estimated scf accuracy    <       0.00059019 Ry

     iteration # 36     ecut=    80.00 Ry     beta= 0.70
     Davidson diagonalization with overlap
     ethr =  3.22E-07,  avg # of iterations =  4.0

     negative rho (up, down):  1.005E-03 0.000E+00

     total cpu time spent up to now is       59.5 secs

     total energy              =    -101.77225423 Ry
     Harris-Foulkes estimate   =    -101.77226935 Ry
     estimated scf accuracy    <       0.00007365 Ry

     iteration # 37     ecut=    80.00 Ry     beta= 0.70
     Davidson diagonalization with overlap
     ethr =  3.22E-07,  avg # of iterations =  1.0

     negative rho (up, down):  1.006E-03 0.000E+00

     total cpu time spent up to now is       61.0 secs

     total energy              =    -101.77224751 Ry
     Harris-Foulkes estimate   =    -101.77225491 Ry
     estimated scf accuracy    <       0.00004798 Ry

     iteration # 38     ecut=    80.00 Ry     beta= 0.70
     Davidson diagonalization with overlap
     ethr =  3.00E-07,  avg # of iterations =  3.0

     negative rho (up, down):  1.006E-03 0.000E+00

     total cpu time spent up to now is       62.6 secs

     total energy              =    -101.77224839 Ry
     Harris-Foulkes estimate   =    -101.77225242 Ry
     estimated scf accuracy    <       0.00001304 Ry

     iteration # 39     ecut=    80.00 Ry     beta= 0.70
     Davidson diagonalization with overlap
     ethr =  8.15E-08,  avg # of iterations =  4.0

     negative rho (up, down):  1.007E-03 0.000E+00

     total cpu time spent up to now is       64.3 secs

     total energy              =    -101.77226706 Ry
     Harris-Foulkes estimate   =    -101.77225477 Ry
     estimated scf accuracy    <       0.00001406 Ry

     iteration # 40     ecut=    80.00 Ry     beta= 0.70
     Davidson diagonalization with overlap
     ethr =  8.15E-08,  avg # of iterations =  4.0

     negative rho (up, down):  1.004E-03 0.000E+00

     total cpu time spent up to now is       66.1 secs

     total energy              =    -101.77226020 Ry
     Harris-Foulkes estimate   =    -101.77228610 Ry
     estimated scf accuracy    <       0.00015123 Ry

     iteration # 41     ecut=    80.00 Ry     beta= 0.70
     Davidson diagonalization with overlap
     ethr =  8.15E-08,  avg # of iterations =  5.0

     negative rho (up, down):  1.003E-03 0.000E+00

     total cpu time spent up to now is       67.8 secs

     total energy              =    -101.77223915 Ry
     Harris-Foulkes estimate   =    -101.77226317 Ry
     estimated scf accuracy    <       0.00007758 Ry

     iteration # 42     ecut=    80.00 Ry     beta= 0.70
     Davidson diagonalization with overlap
     ethr =  8.15E-08,  avg # of iterations =  5.0

     negative rho (up, down):  1.003E-03 0.000E+00

     total cpu time spent up to now is       69.8 secs

     total energy              =    -101.77224890 Ry
     Harris-Foulkes estimate   =    -101.77225010 Ry
     estimated scf accuracy    <       0.00000588 Ry

     iteration # 43     ecut=    80.00 Ry     beta= 0.70
     Davidson diagonalization with overlap
     ethr =  3.68E-08,  avg # of iterations =  5.0

     negative rho (up, down):  1.004E-03 0.000E+00

     total cpu time spent up to now is       71.5 secs

     total energy              =    -101.77225211 Ry
     Harris-Foulkes estimate   =    -101.77225266 Ry
     estimated scf accuracy    <       0.00000386 Ry

     iteration # 44     ecut=    80.00 Ry     beta= 0.70
     Davidson diagonalization with overlap
     ethr =  2.41E-08,  avg # of iterations =  3.0

     negative rho (up, down):  1.004E-03 0.000E+00

     total cpu time spent up to now is       73.2 secs

     total energy              =    -101.77225114 Ry
     Harris-Foulkes estimate   =    -101.77225250 Ry
     estimated scf accuracy    <       0.00000309 Ry

     iteration # 45     ecut=    80.00 Ry     beta= 0.70
     Davidson diagonalization with overlap
     ethr =  1.93E-08,  avg # of iterations =  5.0

     negative rho (up, down):  1.004E-03 0.000E+00

     total cpu time spent up to now is       74.9 secs

     total energy              =    -101.77225161 Ry
     Harris-Foulkes estimate   =    -101.77225164 Ry
     estimated scf accuracy    <       0.00000017 Ry

     iteration # 46     ecut=    80.00 Ry     beta= 0.70
     Davidson diagonalization with overlap
     ethr =  1.07E-09,  avg # of iterations =  5.0

     negative rho (up, down):  1.004E-03 0.000E+00

     total cpu time spent up to now is       76.8 secs

     total energy              =    -101.77225198 Ry
     Harris-Foulkes estimate   =    -101.77225196 Ry
     estimated scf accuracy    <       0.00000065 Ry

     iteration # 47     ecut=    80.00 Ry     beta= 0.70
     Davidson diagonalization with overlap
     ethr =  1.07E-09,  avg # of iterations =  1.0

     negative rho (up, down):  1.004E-03 0.000E+00

     total cpu time spent up to now is       78.4 secs

     total energy              =    -101.77225186 Ry
     Harris-Foulkes estimate   =    -101.77225199 Ry
     estimated scf accuracy    <       0.00000066 Ry

     iteration # 48     ecut=    80.00 Ry     beta= 0.70
     Davidson diagonalization with overlap
     ethr =  1.07E-09,  avg # of iterations =  1.0

     negative rho (up, down):  1.004E-03 0.000E+00

     total cpu time spent up to now is       80.0 secs

     total energy              =    -101.77225179 Ry
     Harris-Foulkes estimate   =    -101.77225186 Ry
     estimated scf accuracy    <       0.00000045 Ry

     iteration # 49     ecut=    80.00 Ry     beta= 0.70
     Davidson diagonalization with overlap
     ethr =  1.07E-09,  avg # of iterations =  3.0

     negative rho (up, down):  1.004E-03 0.000E+00

     total cpu time spent up to now is       81.7 secs

     total energy              =    -101.77225180 Ry
     Harris-Foulkes estimate   =    -101.77225181 Ry
     estimated scf accuracy    <       0.00000017 Ry

     iteration # 50     ecut=    80.00 Ry     beta= 0.70
     Davidson diagonalization with overlap
     ethr =  1.07E-09,  avg # of iterations =  1.0

     negative rho (up, down):  1.004E-03 0.000E+00

     total cpu time spent up to now is       83.4 secs

     total energy              =    -101.77225175 Ry
     Harris-Foulkes estimate   =    -101.77225180 Ry
     estimated scf accuracy    <       0.00000015 Ry

     iteration # 51     ecut=    80.00 Ry     beta= 0.70
     Davidson diagonalization with overlap
     ethr =  9.23E-10,  avg # of iterations =  1.0

     negative rho (up, down):  1.004E-03 0.000E+00

     total cpu time spent up to now is       85.0 secs

     total energy              =    -101.77225173 Ry
     Harris-Foulkes estimate   =    -101.77225175 Ry
     estimated scf accuracy    <       0.00000006 Ry

     iteration # 52     ecut=    80.00 Ry     beta= 0.70
     Davidson diagonalization with overlap
     ethr =  3.49E-10,  avg # of iterations =  4.0

     negative rho (up, down):  1.004E-03 0.000E+00

     total cpu time spent up to now is       86.8 secs

     total energy              =    -101.77225181 Ry
     Harris-Foulkes estimate   =    -101.77225184 Ry
     estimated scf accuracy    <       0.00000017 Ry

     iteration # 53     ecut=    80.00 Ry     beta= 0.70
     Davidson diagonalization with overlap
     ethr =  3.49E-10,  avg # of iterations =  1.0

     negative rho (up, down):  1.004E-03 0.000E+00

     total cpu time spent up to now is       88.5 secs

     total energy              =    -101.77225178 Ry
     Harris-Foulkes estimate   =    -101.77225181 Ry
     estimated scf accuracy    <       0.00000012 Ry

     iteration # 54     ecut=    80.00 Ry     beta= 0.70
     Davidson diagonalization with overlap
     ethr =  3.49E-10,  avg # of iterations =  4.0

     negative rho (up, down):  1.004E-03 0.000E+00

     total cpu time spent up to now is       90.1 secs

     End of self-consistent calculation

          k = 0.0000 0.0000 0.0000 ( 33131 PWs)   bands (ev):

   -28.3283 -27.3279 -13.1297 -11.9123 -11.8598 -11.8565  -8.3419  -8.3406

     highest occupied level (ev):    -8.3406

!    total energy              =    -101.77225180 Ry
     Harris-Foulkes estimate   =    -101.77225180 Ry
     estimated scf accuracy    <          8.0E-10 Ry

     total all-electron energy =      -377.230129 Ry

     The total energy is the sum of the following terms:

     one-electron contribution =    -137.39344307 Ry
     hartree contribution      =      71.58528108 Ry
     xc contribution           =     -19.25508615 Ry
     ewald contribution        =       8.65216311 Ry
     one-center paw contrib.   =     -25.36116677 Ry

     convergence has been achieved in  54 iterations

     Writing output data file CO2.save\

     init_run     :      5.27s CPU      2.78s WALL (       1 calls)
     electrons    :    318.86s CPU     83.68s WALL (       1 calls)

     Called by init_run:
     wfcinit      :      0.70s CPU      0.18s WALL (       1 calls)
     potinit      :      1.28s CPU      0.32s WALL (       1 calls)
     hinit0       :      1.95s CPU      1.81s WALL (       1 calls)

     Called by electrons:
     c_bands      :     57.23s CPU     13.96s WALL (      54 calls)
     sum_band     :    105.62s CPU     27.84s WALL (      54 calls)
     v_of_rho     :     45.41s CPU     10.96s WALL (      55 calls)
     newd         :     64.27s CPU     17.85s WALL (      55 calls)
     PAW_pot      :     22.36s CPU      5.02s WALL (      55 calls)
     mix_rho      :     24.83s CPU      8.19s WALL (      54 calls)

     Called by c_bands:
     init_us_2    :      3.05s CPU      0.40s WALL (     109 calls)
     cegterg      :     53.38s CPU     13.35s WALL (      54 calls)

     Called by sum_band:
     sum_band:bec :      0.00s CPU      0.01s WALL (      54 calls)
     addusdens    :     82.30s CPU     21.24s WALL (      54 calls)

     Called by *egterg:
     h_psi        :     46.38s CPU     11.28s WALL (     189 calls)
     s_psi        :      1.80s CPU      0.42s WALL (     189 calls)
     g_psi        :      0.66s CPU      0.10s WALL (     134 calls)
     cdiaghg      :      0.03s CPU      0.04s WALL (     188 calls)

     Called by h_psi:
     h_psi:pot    :     45.95s CPU     11.14s WALL (     189 calls)
     h_psi:calbec :      0.81s CPU      0.30s WALL (     189 calls)
     vloc_psi     :     43.14s CPU     10.42s WALL (     189 calls)
     add_vuspsi   :      2.00s CPU      0.42s WALL (     189 calls)

     General routines
     calbec       :      1.06s CPU      0.38s WALL (     243 calls)
     fft          :      7.14s CPU      1.95s WALL (     605 calls)
     ffts         :      0.62s CPU      0.17s WALL (      54 calls)
     fftw         :     34.80s CPU      8.97s WALL (    2732 calls)

     Parallel routines

     PWSCF        :   5m27.09s CPU   1m30.29s WALL


   This run was terminated on:  19:57:22   3May2020            

=------------------------------------------------------------------------------=
   JOB DONE.
=------------------------------------------------------------------------------=
